 Output coordinates in a.u. (scale by  1.000000000 to convert to a.u.)

  No.       Tag          Charge          X              Y              Z
 ---- ---------------- ---------- -------------- -------------- --------------
    1 O1                   8.0000     0.10880900     0.00000000    -0.06077600
    2 H1                   1.0000    -0.16161460     0.00000000     1.75530702
    3 H2                   1.0000    -1.57933347     0.00000000    -0.78289890
    4 O1                   8.0000    -0.09648300     0.00000000     5.59028800
    5 H1                   1.0000     0.77186787     1.45365210     6.30032236
    6 H2                   1.0000     0.77186805    -1.45365182     6.30032273
    7 bqmb                 0.0000     0.00376528     0.00000007     3.64787605

         Total SCF energy =   -152.113095406356

 Vector    2  Occ=2.000000D+00  E=-2.054039D+01

 Vector    3  Occ=2.000000D+00  E=-1.370960D+00

 Vector    4  Occ=2.000000D+00  E=-1.318253D+00

 Vector    5  Occ=2.000000D+00  E=-7.350328D-01

 Vector    6  Occ=2.000000D+00  E=-6.901259D-01

 Vector    7  Occ=2.000000D+00  E=-6.103647D-01

 Vector    8  Occ=2.000000D+00  E=-5.571299D-01

 Vector    9  Occ=2.000000D+00  E=-5.297823D-01

 Vector   10  Occ=2.000000D+00  E=-4.815073D-01

 Vector   11  Occ=0.000000D+00  E= 3.023738D-02

 Vector   12  Occ=0.000000D+00  E= 5.579933D-02

 Vector   13  Occ=0.000000D+00  E= 5.736665D-02

 Vector   14  Occ=0.000000D+00  E= 9.363655D-02

 Vector   15  Occ=0.000000D+00  E= 1.258316D-01

 Vector   16  Occ=0.000000D+00  E= 1.609662D-01

 Vector   17  Occ=0.000000D+00  E= 1.808103D-01

 Vector   18  Occ=0.000000D+00  E= 1.848515D-01

 Vector   19  Occ=0.000000D+00  E= 2.052198D-01

 Vector   20  Occ=0.000000D+00  E= 2.157760D-01

 Vector   21  Occ=0.000000D+00  E= 2.245797D-01

 Vector   22  Occ=0.000000D+00  E= 2.361170D-01

 Vector   23  Occ=0.000000D+00  E= 2.543712D-01

 Vector   24  Occ=0.000000D+00  E= 2.676984D-01

 Vector   25  Occ=0.000000D+00  E= 2.685898D-01

 Vector   26  Occ=0.000000D+00  E= 2.939191D-01

 Vector   27  Occ=0.000000D+00  E= 3.142538D-01

 Vector   28  Occ=0.000000D+00  E= 3.371577D-01

 Vector   29  Occ=0.000000D+00  E= 3.859372D-01

 Vector   30  Occ=0.000000D+00  E= 4.024789D-01

 Vector   31  Occ=0.000000D+00  E= 4.158027D-01

 Vector   32  Occ=0.000000D+00  E= 4.428106D-01

 Vector   33  Occ=0.000000D+00  E= 4.457794D-01

 Vector   34  Occ=0.000000D+00  E= 4.628026D-01

 Vector   35  Occ=0.000000D+00  E= 4.820694D-01

 Vector   36  Occ=0.000000D+00  E= 4.979070D-01

 Vector   37  Occ=0.000000D+00  E= 5.220265D-01

       Multipole analysis of the density wrt the origin
       ------------------------------------------------

     L   x y z        total         open         nuclear
     -   - - -        -----         ----         -------
     0   0 0 0      0.000000      0.000000     20.000000

     1   1 0 0     -0.058574      0.000000     -0.098604
     1   0 1 0      0.000000      0.000000      0.000000
     1   0 0 1      1.081811      0.000000     57.809149

     2   2 0 0     -9.128155      0.000000      3.881161
     2   1 1 0      0.000000      0.000000      0.000000
     2   1 0 1      4.729634      0.000000      6.310964
     2   0 2 0     -8.747899      0.000000      4.226208
     2   0 1 1      0.000001      0.000000      0.000001

 Total times  cpu:        7.1s     wall:        8.5s
