 Output coordinates in a.u. (scale by  1.000000000 to convert to a.u.)

  No.       Tag          Charge          X              Y              Z
 ---- ---------------- ---------- -------------- -------------- --------------
    1 O1                   8.0000    -0.09648300     0.00000000     5.59028800
    2 H1                   1.0000     0.77186787     1.45365210     6.30032236
    3 H2                   1.0000     0.77186805    -1.45365182     6.30032273
    4 bqO1                 0.0000     0.10880900     0.00000000    -0.06077600
    5 bqH1                 0.0000    -0.16161460     0.00000000     1.75530702
    6 bqH2                 0.0000    -1.57933347     0.00000000    -0.78289890
    7 bqmb                 0.0000     0.00376528     0.00000007     3.64787605

         Total SCF energy =    -76.053412147006

 Vector    2  Occ=2.000000D+00  E=-1.345907D+00

 Vector    3  Occ=2.000000D+00  E=-7.116715D-01

 Vector    4  Occ=2.000000D+00  E=-5.824793D-01

 Vector    5  Occ=2.000000D+00  E=-5.083320D-01

 Vector    6  Occ=0.000000D+00  E= 3.407766D-02

 Vector    7  Occ=0.000000D+00  E= 5.578485D-02

 Vector    8  Occ=0.000000D+00  E= 5.820745D-02

 Vector    9  Occ=0.000000D+00  E= 8.344390D-02

 Vector   10  Occ=0.000000D+00  E= 1.279206D-01

 Vector   11  Occ=0.000000D+00  E= 1.506404D-01

 Vector   12  Occ=0.000000D+00  E= 1.537816D-01

 Vector   13  Occ=0.000000D+00  E= 1.793046D-01

 Vector   14  Occ=0.000000D+00  E= 1.977647D-01

 Vector   15  Occ=0.000000D+00  E= 2.125462D-01

 Vector   16  Occ=0.000000D+00  E= 2.223086D-01

 Vector   17  Occ=0.000000D+00  E= 2.383336D-01

 Vector   18  Occ=0.000000D+00  E= 2.455272D-01

 Vector   19  Occ=0.000000D+00  E= 2.787038D-01

 Vector   20  Occ=0.000000D+00  E= 2.836164D-01

 Vector   21  Occ=0.000000D+00  E= 3.002788D-01

 Vector   22  Occ=0.000000D+00  E= 3.240077D-01

 Vector   23  Occ=0.000000D+00  E= 3.515547D-01

 Vector   24  Occ=0.000000D+00  E= 3.786742D-01

 Vector   25  Occ=0.000000D+00  E= 4.082447D-01

 Vector   26  Occ=0.000000D+00  E= 4.116278D-01

 Vector   27  Occ=0.000000D+00  E= 4.316989D-01

 Vector   28  Occ=0.000000D+00  E= 4.334176D-01

 Vector   29  Occ=0.000000D+00  E= 4.543674D-01

 Vector   30  Occ=0.000000D+00  E= 4.732439D-01

 Vector   31  Occ=0.000000D+00  E= 5.034454D-01

       Multipole analysis of the density wrt the origin
       ------------------------------------------------

     L   x y z        total         open         nuclear
     -   - - -        -----         ----         -------
     0   0 0 0      0.000000      0.000000     10.000000

     1   1 0 0      0.606233      0.000000      0.771872
     1   0 1 0      0.000000      0.000000      0.000000
     1   0 0 1      0.496106      0.000000     57.322949

     2   2 0 0     -4.964355      0.000000      1.266032
     2   1 1 0      0.000000      0.000000      0.000000
     2   1 0 1      4.002600      0.000000      5.411092
     2   0 2 0     -3.131755      0.000000      4.226208
     2   0 1 1      0.000000      0.000000      0.000001

 Total times  cpu:        7.9s     wall:        8.0s
