 Output coordinates in a.u. (scale by  1.000000000 to convert to a.u.)

  No.       Tag          Charge          X              Y              Z
 ---- ---------------- ---------- -------------- -------------- --------------
    1 O1                   8.0000     0.10880900     0.00000000    -0.06077600
    2 H1                   1.0000    -0.16161460     0.00000000     1.75530702
    3 H2                   1.0000    -1.57933347     0.00000000    -0.78289890
    4 bqO1                 0.0000    -0.09648300     0.00000000     5.59028800
    5 bqH1                 0.0000     0.77186787     1.45365210     6.30032236
    6 bqH2                 0.0000     0.77186805    -1.45365182     6.30032273
    7 bqmb                 0.0000     0.00376528     0.00000007     3.64787605

         Total SCF energy =    -76.053520924788

 Vector    2  Occ=2.000000D+00  E=-1.345784D+00

 Vector    3  Occ=2.000000D+00  E=-7.115881D-01

 Vector    4  Occ=2.000000D+00  E=-5.825896D-01

 Vector    5  Occ=2.000000D+00  E=-5.086006D-01

 Vector    6  Occ=0.000000D+00  E= 2.740687D-02

 Vector    7  Occ=0.000000D+00  E= 5.203198D-02

 Vector    8  Occ=0.000000D+00  E= 6.170738D-02

 Vector    9  Occ=0.000000D+00  E= 8.750648D-02

 Vector   10  Occ=0.000000D+00  E= 1.073294D-01

 Vector   11  Occ=0.000000D+00  E= 1.447763D-01

 Vector   12  Occ=0.000000D+00  E= 1.594121D-01

 Vector   13  Occ=0.000000D+00  E= 1.702087D-01

 Vector   14  Occ=0.000000D+00  E= 1.933684D-01

 Vector   15  Occ=0.000000D+00  E= 2.011142D-01

 Vector   16  Occ=0.000000D+00  E= 2.097487D-01

 Vector   17  Occ=0.000000D+00  E= 2.458983D-01

 Vector   18  Occ=0.000000D+00  E= 2.741307D-01

 Vector   19  Occ=0.000000D+00  E= 2.788088D-01

 Vector   20  Occ=0.000000D+00  E= 2.805946D-01

 Vector   21  Occ=0.000000D+00  E= 2.978417D-01

 Vector   22  Occ=0.000000D+00  E= 3.129224D-01

 Vector   23  Occ=0.000000D+00  E= 3.343108D-01

 Vector   24  Occ=0.000000D+00  E= 3.547288D-01

 Vector   25  Occ=0.000000D+00  E= 3.894778D-01

 Vector   26  Occ=0.000000D+00  E= 3.983266D-01

 Vector   27  Occ=0.000000D+00  E= 4.215076D-01

 Vector   28  Occ=0.000000D+00  E= 4.265162D-01

 Vector   29  Occ=0.000000D+00  E= 4.337463D-01

 Vector   30  Occ=0.000000D+00  E= 4.734949D-01

 Vector   31  Occ=0.000000D+00  E= 4.799655D-01

 Vector   32  Occ=0.000000D+00  E= 4.898270D-01

 Vector   33  Occ=0.000000D+00  E= 5.191046D-01

       Multipole analysis of the density wrt the origin
       ------------------------------------------------

     L   x y z        total         open         nuclear
     -   - - -        -----         ----         -------
     0   0 0 0      0.000000      0.000000     10.000000

     1   1 0 0     -0.684108      0.000000     -0.870476
     1   0 1 0      0.000000      0.000000      0.000000
     1   0 0 1      0.382646      0.000000      0.486200

     2   2 0 0     -4.179857      0.000000      2.615129
     2   1 1 0      0.000000      0.000000      0.000000
     2   1 0 1      0.585944      0.000000      0.899871
     2   0 2 0     -5.649042      0.000000      0.000000
     2   0 1 1      0.000000      0.000000      0.000000

 Total times  cpu:        7.8s     wall:        8.3s
