 Output coordinates in a.u. (scale by  1.000000000 to convert to a.u.)

  No.       Tag          Charge          X              Y              Z
 ---- ---------------- ---------- -------------- -------------- --------------
    1 C                    6.0000     0.00000000     0.00000000    -5.29123277
    2 O                    8.0000     0.00000000     0.00000000    -7.41334014
    3 Cl                  17.0000     0.00000000     0.00000000     0.00000000
    4 F                    9.0000     0.00000000     0.00000000     3.15938392

         Total SCF energy =   -671.651637776378

 Vector   11  Occ=2.000000D+00  E=-1.104865D+00

 Vector   12  Occ=2.000000D+00  E=-8.263225D-01

 Vector   13  Occ=2.000000D+00  E=-7.057182D-01

 Vector   14  Occ=2.000000D+00  E=-7.057182D-01

 Vector   15  Occ=2.000000D+00  E=-6.894609D-01

 Vector   16  Occ=2.000000D+00  E=-6.625039D-01

 Vector   17  Occ=2.000000D+00  E=-6.625039D-01

 Vector   18  Occ=2.000000D+00  E=-5.756743D-01

 Vector   19  Occ=2.000000D+00  E=-4.930593D-01

 Vector   20  Occ=2.000000D+00  E=-4.930593D-01

 Vector   21  Occ=0.000000D+00  E= 5.222728D-02

 Vector   22  Occ=0.000000D+00  E= 6.900125D-02

 Vector   23  Occ=0.000000D+00  E= 6.900125D-02

 Vector   24  Occ=0.000000D+00  E= 7.391018D-02

 Vector   25  Occ=0.000000D+00  E= 8.841323D-02

 Vector   26  Occ=0.000000D+00  E= 1.237362D-01

 Vector   27  Occ=0.000000D+00  E= 1.237362D-01

 Vector   28  Occ=0.000000D+00  E= 1.330417D-01

 Vector   29  Occ=0.000000D+00  E= 1.396586D-01

 Vector   30  Occ=0.000000D+00  E= 1.396586D-01

 Vector   31  Occ=0.000000D+00  E= 1.743161D-01

 Vector   32  Occ=0.000000D+00  E= 1.794347D-01

 Vector   33  Occ=0.000000D+00  E= 1.794347D-01

 Vector   34  Occ=0.000000D+00  E= 2.435553D-01

 Vector   35  Occ=0.000000D+00  E= 2.435553D-01

 Vector   36  Occ=0.000000D+00  E= 2.596271D-01

 Vector   37  Occ=0.000000D+00  E= 2.747588D-01

 Vector   38  Occ=0.000000D+00  E= 2.754342D-01

 Vector   39  Occ=0.000000D+00  E= 2.754342D-01

 Vector   40  Occ=0.000000D+00  E= 2.990930D-01

 Vector   41  Occ=0.000000D+00  E= 2.990930D-01

 Vector   42  Occ=0.000000D+00  E= 3.190804D-01

 Vector   43  Occ=0.000000D+00  E= 3.621559D-01

 Vector   44  Occ=0.000000D+00  E= 3.621559D-01

 Vector   45  Occ=0.000000D+00  E= 3.772102D-01

 Vector   46  Occ=0.000000D+00  E= 4.661846D-01

 Vector   47  Occ=0.000000D+00  E= 4.661846D-01

 Vector   48  Occ=0.000000D+00  E= 5.338616D-01

       Multipole analysis of the density wrt the origin
       ------------------------------------------------

     L   x y z        total         open         nuclear
     -   - - -        -----         ----         -------
     0   0 0 0      0.000000      0.000000     40.000000

     1   1 0 0      0.000000      0.000000      0.000000
     1   0 1 0      0.000000      0.000000      0.000000
     1   0 0 1     -0.637489      0.000000    -62.619662

     2   2 0 0    -20.577084      0.000000      0.000000
     2   1 1 0      0.000000      0.000000      0.000000
     2   1 0 1      0.000000      0.000000      0.000000
     2   0 2 0    -20.577084      0.000000      0.000000
     2   0 1 1      0.000000      0.000000      0.000000

 Total times  cpu:        6.5s     wall:        6.8s
