 Output coordinates in a.u. (scale by  1.000000000 to convert to a.u.)

  No.       Tag          Charge          X              Y              Z
 ---- ---------------- ---------- -------------- -------------- --------------
    1 Cl                  17.0000     0.00000000     0.00000000     0.00000000
    2 F                    9.0000     0.00000000     0.00000000     3.15938392
    3 bqC                  0.0000     0.00000000     0.00000000    -5.29123277
    4 bqO                  0.0000     0.00000000     0.00000000    -7.41334014

         Total SCF energy =   -558.881003295228

 Vector    4  Occ=2.000000D+00  E=-8.133942D+00

 Vector    5  Occ=2.000000D+00  E=-8.128729D+00

 Vector    6  Occ=2.000000D+00  E=-8.128729D+00

 Vector    7  Occ=2.000000D+00  E=-1.626398D+00

 Vector    8  Occ=2.000000D+00  E=-1.110899D+00

 Vector    9  Occ=2.000000D+00  E=-7.177091D-01

 Vector   10  Occ=2.000000D+00  E=-7.177091D-01

 Vector   11  Occ=2.000000D+00  E=-6.887827D-01

 Vector   12  Occ=2.000000D+00  E=-4.999121D-01

 Vector   13  Occ=2.000000D+00  E=-4.999121D-01

 Vector   14  Occ=0.000000D+00  E= 2.129574D-02

 Vector   15  Occ=0.000000D+00  E= 5.427381D-02

 Vector   16  Occ=0.000000D+00  E= 7.707902D-02

 Vector   17  Occ=0.000000D+00  E= 7.707902D-02

 Vector   18  Occ=0.000000D+00  E= 7.939375D-02

 Vector   19  Occ=0.000000D+00  E= 1.327650D-01

 Vector   20  Occ=0.000000D+00  E= 1.327650D-01

 Vector   21  Occ=0.000000D+00  E= 1.334892D-01

 Vector   22  Occ=0.000000D+00  E= 1.698618D-01

 Vector   23  Occ=0.000000D+00  E= 1.956249D-01

 Vector   24  Occ=0.000000D+00  E= 1.956249D-01

 Vector   25  Occ=0.000000D+00  E= 2.005152D-01

 Vector   26  Occ=0.000000D+00  E= 2.199688D-01

 Vector   27  Occ=0.000000D+00  E= 2.199688D-01

 Vector   28  Occ=0.000000D+00  E= 2.446087D-01

 Vector   29  Occ=0.000000D+00  E= 2.446087D-01

 Vector   30  Occ=0.000000D+00  E= 2.508704D-01

 Vector   31  Occ=0.000000D+00  E= 2.662537D-01

 Vector   32  Occ=0.000000D+00  E= 3.028531D-01

 Vector   33  Occ=0.000000D+00  E= 3.028531D-01

 Vector   34  Occ=0.000000D+00  E= 3.240394D-01

 Vector   35  Occ=0.000000D+00  E= 3.240394D-01

 Vector   36  Occ=0.000000D+00  E= 3.403134D-01

 Vector   37  Occ=0.000000D+00  E= 4.185880D-01

 Vector   38  Occ=0.000000D+00  E= 4.685720D-01

 Vector   39  Occ=0.000000D+00  E= 4.685720D-01

 Vector   40  Occ=0.000000D+00  E= 5.057828D-01

       Multipole analysis of the density wrt the origin
       ------------------------------------------------

     L   x y z        total         open         nuclear
     -   - - -        -----         ----         -------
     0   0 0 0      0.000000      0.000000     26.000000

     1   1 0 0      0.000000      0.000000      0.000000
     1   0 1 0      0.000000      0.000000      0.000000
     1   0 0 1     -0.501054      0.000000     28.434455

     2   2 0 0    -13.007923      0.000000      0.000000
     2   1 1 0      0.000000      0.000000      0.000000
     2   1 0 1      0.000000      0.000000      0.000000
     2   0 2 0    -13.007923      0.000000      0.000000
     2   0 1 1      0.000000      0.000000      0.000000

 Total times  cpu:        6.0s     wall:        6.1s
