 Output coordinates in a.u. (scale by  1.000000000 to convert to a.u.)

  No.       Tag          Charge          X              Y              Z
 ---- ---------------- ---------- -------------- -------------- --------------
    1 C                    6.0000     0.00000000     0.00000000    -5.29123277
    2 O                    8.0000     0.00000000     0.00000000    -7.41334014
    3 bqCl                 0.0000     0.00000000     0.00000000     0.00000000
    4 bqF                  0.0000     0.00000000     0.00000000     3.15938392

         Total SCF energy =   -112.770718066989

 Vector    2  Occ=2.000000D+00  E=-1.136980D+01

 Vector    3  Occ=2.000000D+00  E=-1.529143D+00

 Vector    4  Occ=2.000000D+00  E=-8.073664D-01

 Vector    5  Occ=2.000000D+00  E=-6.438533D-01

 Vector    6  Occ=2.000000D+00  E=-6.438533D-01

 Vector    7  Occ=2.000000D+00  E=-5.545407D-01

 Vector    8  Occ=0.000000D+00  E= 5.542766D-02

 Vector    9  Occ=0.000000D+00  E= 7.126926D-02

 Vector   10  Occ=0.000000D+00  E= 7.126926D-02

 Vector   11  Occ=0.000000D+00  E= 8.142211D-02

 Vector   12  Occ=0.000000D+00  E= 1.114486D-01

 Vector   13  Occ=0.000000D+00  E= 1.189197D-01

 Vector   14  Occ=0.000000D+00  E= 1.189197D-01

 Vector   15  Occ=0.000000D+00  E= 1.488890D-01

 Vector   16  Occ=0.000000D+00  E= 1.488890D-01

 Vector   17  Occ=0.000000D+00  E= 1.545004D-01

 Vector   18  Occ=0.000000D+00  E= 1.935774D-01

 Vector   19  Occ=0.000000D+00  E= 1.935774D-01

 Vector   20  Occ=0.000000D+00  E= 2.064237D-01

 Vector   21  Occ=0.000000D+00  E= 2.345080D-01

 Vector   22  Occ=0.000000D+00  E= 2.345080D-01

 Vector   23  Occ=0.000000D+00  E= 2.530089D-01

 Vector   24  Occ=0.000000D+00  E= 2.740959D-01

 Vector   25  Occ=0.000000D+00  E= 2.740959D-01

 Vector   26  Occ=0.000000D+00  E= 2.809492D-01

 Vector   27  Occ=0.000000D+00  E= 3.425170D-01

 Vector   28  Occ=0.000000D+00  E= 3.578388D-01

 Vector   29  Occ=0.000000D+00  E= 3.578388D-01

 Vector   30  Occ=0.000000D+00  E= 3.604823D-01

 Vector   31  Occ=0.000000D+00  E= 3.604823D-01

 Vector   32  Occ=0.000000D+00  E= 3.802551D-01

 Vector   33  Occ=0.000000D+00  E= 4.084902D-01

 Vector   34  Occ=0.000000D+00  E= 4.084902D-01

 Vector   35  Occ=0.000000D+00  E= 4.884614D-01

 Vector   36  Occ=0.000000D+00  E= 5.541742D-01

       Multipole analysis of the density wrt the origin
       ------------------------------------------------

     L   x y z        total         open         nuclear
     -   - - -        -----         ----         -------
     0   0 0 0      0.000000      0.000000     14.000000

     1   1 0 0      0.000000      0.000000      0.000000
     1   0 1 0      0.000000      0.000000      0.000000
     1   0 0 1      0.091010      0.000000    -91.054118

     2   2 0 0     -7.607700      0.000000      0.000000
     2   1 1 0      0.000000      0.000000      0.000000
     2   1 0 1      0.000000      0.000000      0.000000
     2   0 2 0     -7.607700      0.000000      0.000000
     2   0 1 1      0.000000      0.000000      0.000000

 Total times  cpu:        5.6s     wall:        6.4s
