 Output coordinates in a.u. (scale by  1.000000000 to convert to a.u.)

  No.       Tag          Charge          X              Y              Z
 ---- ---------------- ---------- -------------- -------------- --------------
    1 He                   2.0000     0.00000000     0.00000000     5.60000000
    2 bqHe                 0.0000     0.00000000     0.00000000     0.00000000
    3 bqmb                 0.0000     0.00000000     0.00000000     2.80000000

         Total DFT energy =       -2.894028700646

                       DFT Final Molecular Orbital Analysis
                       ------------------------------------

 Vector    1  Occ=2.000000D+00  E=-8.818079D-01

 Vector    2  Occ=0.000000D+00  E=-5.690454D-02

 Vector    3  Occ=0.000000D+00  E=-1.411601D-02

 Vector    4  Occ=0.000000D+00  E= 8.147637D-02

 Vector    5  Occ=0.000000D+00  E= 1.037104D-01

 Vector    6  Occ=0.000000D+00  E= 1.037104D-01

 Vector    7  Occ=0.000000D+00  E= 2.617921D-01

 Vector    8  Occ=0.000000D+00  E= 2.749037D-01

 Vector    9  Occ=0.000000D+00  E= 2.749037D-01

 Vector   10  Occ=0.000000D+00  E= 3.373856D-01

 Vector   11  Occ=0.000000D+00  E= 4.491595D-01

 Vector   12  Occ=0.000000D+00  E= 4.802318D-01

 Vector   13  Occ=0.000000D+00  E= 4.802318D-01

 Vector   14  Occ=0.000000D+00  E= 5.156993D-01

     Multipole analysis of the density
     ---------------------------------

     L   x y z        total         alpha         beta         nuclear
     -   - - -        -----         -----         ----         -------
     0   0 0 0      0.000000     -1.000000     -1.000000      2.000000

     1   1 0 0      0.000000      0.000000      0.000000      0.000000
     1   0 1 0      0.000000      0.000000      0.000000      0.000000
     1   0 0 1      0.000062     -5.599969     -5.599969     11.200000

     2   2 0 0     -0.782284     -0.391142     -0.391142      0.000000
     2   1 1 0      0.000000      0.000000      0.000000      0.000000
     2   1 0 1      0.000000      0.000000      0.000000      0.000000
     2   0 2 0     -0.782284     -0.391142     -0.391142      0.000000
     2   0 1 1      0.000000      0.000000      0.000000      0.000000

 Total times  cpu:        2.6s     wall:        3.0s
