 Output coordinates in a.u. (scale by  1.000000000 to convert to a.u.)

  No.       Tag          Charge          X              Y              Z
 ---- ---------------- ---------- -------------- -------------- --------------
    1 O                    8.0000     0.00000000     0.00000000     0.00000000
    2 H1                   1.0000    -1.45365196     0.00000000    -1.12168732
    3 H2                   1.0000     1.45365196     0.00000000    -1.12168732

         Total DFT energy =      -76.338758934946

                       DFT Final Molecular Orbital Analysis
                       ------------------------------------

 Vector    1  Occ=2.000000D+00  E=-1.919789D+01

 Vector    2  Occ=2.000000D+00  E=-1.015087D+00

 Vector    3  Occ=2.000000D+00  E=-5.223354D-01

 Vector    4  Occ=2.000000D+00  E=-3.778168D-01

 Vector    5  Occ=2.000000D+00  E=-3.003678D-01

 Vector    6  Occ=0.000000D+00  E= 6.703637D-02

 Vector    7  Occ=0.000000D+00  E= 1.422215D-01

 Vector    8  Occ=0.000000D+00  E= 5.714910D-01

 Vector    9  Occ=0.000000D+00  E= 6.214668D-01

 Vector   10  Occ=0.000000D+00  E= 9.236406D-01

 Vector   11  Occ=0.000000D+00  E= 9.454051D-01

 Vector   12  Occ=0.000000D+00  E= 1.018328D+00

 Vector   13  Occ=0.000000D+00  E= 1.221457D+00

 Vector   14  Occ=0.000000D+00  E= 1.239198D+00

 Vector   15  Occ=0.000000D+00  E= 1.437843D+00

 Vector   16  Occ=0.000000D+00  E= 1.613784D+00

 Vector   17  Occ=0.000000D+00  E= 1.669839D+00

 Vector   18  Occ=0.000000D+00  E= 2.109057D+00

 Vector   19  Occ=0.000000D+00  E= 2.144081D+00

 Vector   20  Occ=0.000000D+00  E= 2.922816D+00

 Vector   21  Occ=0.000000D+00  E= 2.968542D+00

 Vector   22  Occ=0.000000D+00  E= 3.129685D+00

 Vector   23  Occ=0.000000D+00  E= 3.477593D+00

 Vector   24  Occ=0.000000D+00  E= 3.745023D+00

     Multipole analysis of the density
     ---------------------------------

     L   x y z        total         alpha         beta         nuclear
     -   - - -        -----         -----         ----         -------
     0   0 0 0     -0.000000     -5.000000     -5.000000     10.000000

     1   1 0 0      0.000000      0.000000      0.000000      0.000000
     1   0 1 0      0.000000      0.000000      0.000000      0.000000
     1   0 0 1     -0.763394      0.739990      0.739990     -2.243375

     2   2 0 0     -3.117319     -3.671764     -3.671764      4.226208
     2   1 1 0      0.000000      0.000000      0.000000      0.000000
     2   1 0 1     -0.000000     -0.000000     -0.000000      0.000000
     2   0 2 0     -5.221193     -2.610597     -2.610597      0.000000
     2   0 1 1     -0.000000     -0.000000     -0.000000      0.000000

 Total times  cpu:        4.8s     wall:        1.3s
