 Output coordinates in a.u. (scale by  1.000000000 to convert to a.u.)

  No.       Tag          Charge          X              Y              Z
 ---- ---------------- ---------- -------------- -------------- --------------
    1 O1                   8.0000     0.10880900     0.00000000    -0.06077600
    2 H1                   1.0000    -0.16161460     0.00000000     1.75530702
    3 H2                   1.0000    -1.57933347     0.00000000    -0.78289890
    4 bqO1                 0.0000    -0.09648300     0.00000000     5.59028800
    5 bqH1                 0.0000     0.77186787     1.45365210     6.30032236
    6 bqH2                 0.0000     0.77186805    -1.45365182     6.30032273
    7 bqmb                 0.0000     0.00376528     0.00000007     3.64787605

         Total DFT energy =      -76.372812398827

                       DFT Final Molecular Orbital Analysis
                       ------------------------------------

 Vector    1  Occ=2.000000D+00  E=-1.936345D+01

 Vector    2  Occ=2.000000D+00  E=-1.165616D+00

 Vector    3  Occ=2.000000D+00  E=-6.721395D-01

 Vector    4  Occ=2.000000D+00  E=-5.389691D-01

 Vector    5  Occ=2.000000D+00  E=-4.632602D-01

 Vector    6  Occ=0.000000D+00  E=-1.203559D-01

 Vector    7  Occ=0.000000D+00  E=-5.858542D-02

 Vector    8  Occ=0.000000D+00  E=-1.618947D-02

 Vector    9  Occ=0.000000D+00  E=-1.554373D-02

 Vector   10  Occ=0.000000D+00  E= 3.700590D-03

 Vector   11  Occ=0.000000D+00  E= 1.844642D-02

 Vector   12  Occ=0.000000D+00  E= 2.887740D-02

 Vector   13  Occ=0.000000D+00  E= 3.703801D-02

 Vector   14  Occ=0.000000D+00  E= 5.997848D-02

 Vector   15  Occ=0.000000D+00  E= 8.149525D-02

 Vector   16  Occ=0.000000D+00  E= 9.738077D-02

 Vector   17  Occ=0.000000D+00  E= 1.094443D-01

 Vector   18  Occ=0.000000D+00  E= 1.164788D-01

 Vector   19  Occ=0.000000D+00  E= 1.248784D-01

 Vector   20  Occ=0.000000D+00  E= 1.504769D-01

 Vector   21  Occ=0.000000D+00  E= 1.778582D-01

 Vector   22  Occ=0.000000D+00  E= 2.061394D-01

 Vector   23  Occ=0.000000D+00  E= 2.116434D-01

 Vector   24  Occ=0.000000D+00  E= 2.176236D-01

 Vector   25  Occ=0.000000D+00  E= 2.362997D-01

 Vector   26  Occ=0.000000D+00  E= 2.717995D-01

 Vector   27  Occ=0.000000D+00  E= 2.855971D-01

 Vector   28  Occ=0.000000D+00  E= 3.041852D-01

 Vector   29  Occ=0.000000D+00  E= 3.044976D-01

 Vector   30  Occ=0.000000D+00  E= 3.372459D-01

 Vector   31  Occ=0.000000D+00  E= 3.385397D-01

 Vector   32  Occ=0.000000D+00  E= 3.517196D-01

 Vector   33  Occ=0.000000D+00  E= 3.658997D-01

 Vector   34  Occ=0.000000D+00  E= 3.708781D-01

 Vector   35  Occ=0.000000D+00  E= 4.297907D-01

 Vector   36  Occ=0.000000D+00  E= 4.454035D-01

 Vector   37  Occ=0.000000D+00  E= 4.810929D-01

 Vector   38  Occ=0.000000D+00  E= 4.934963D-01

 Vector   39  Occ=0.000000D+00  E= 5.170898D-01

     Multipole analysis of the density
     ---------------------------------

     L   x y z        total         alpha         beta         nuclear
     -   - - -        -----         -----         ----         -------
     0   0 0 0      0.000000     -5.000000     -5.000000     10.000000

     1   1 0 0     -0.635718      0.117379      0.117379     -0.870476
     1   0 1 0      0.000000      0.000000      0.000000      0.000000
     1   0 0 1      0.356958     -0.064621     -0.064621      0.486200

     2   2 0 0     -4.329110     -3.472119     -3.472119      2.615129
     2   1 1 0      0.000000      0.000000      0.000000      0.000000
     2   1 0 1      0.572938     -0.163467     -0.163467      0.899871
     2   0 2 0     -5.735167     -2.867584     -2.867584      0.000000
     2   0 1 1      0.000002      0.000001      0.000001      0.000000

 Total times  cpu:       36.7s     wall:       36.9s
