 Output coordinates in a.u. (scale by  1.000000000 to convert to a.u.)

  No.       Tag          Charge          X              Y              Z
 ---- ---------------- ---------- -------------- -------------- --------------
    1 O1                   8.0000    -0.09648300     0.00000000     5.59028800
    2 H1                   1.0000     0.77186787     1.45365210     6.30032236
    3 H2                   1.0000     0.77186805    -1.45365182     6.30032273
    4 bqO1                 0.0000     0.10880900     0.00000000    -0.06077600
    5 bqH1                 0.0000    -0.16161460     0.00000000     1.75530702
    6 bqH2                 0.0000    -1.57933347     0.00000000    -0.78289890
    7 bqmb                 0.0000     0.00376528     0.00000007     3.64787605

         Total DFT energy =      -76.372872994312

                       DFT Final Molecular Orbital Analysis
                       ------------------------------------

 Vector    1  Occ=2.000000D+00  E=-1.936299D+01

 Vector    2  Occ=2.000000D+00  E=-1.165952D+00

 Vector    3  Occ=2.000000D+00  E=-6.722980D-01

 Vector    4  Occ=2.000000D+00  E=-5.390728D-01

 Vector    5  Occ=2.000000D+00  E=-4.633042D-01

 Vector    6  Occ=0.000000D+00  E=-1.200359D-01

 Vector    7  Occ=0.000000D+00  E=-5.729650D-02

 Vector    8  Occ=0.000000D+00  E=-3.073688D-02

 Vector    9  Occ=0.000000D+00  E=-1.084477D-02

 Vector   10  Occ=0.000000D+00  E= 1.641582D-02

 Vector   11  Occ=0.000000D+00  E= 3.261213D-02

 Vector   12  Occ=0.000000D+00  E= 3.474338D-02

 Vector   13  Occ=0.000000D+00  E= 5.490453D-02

 Vector   14  Occ=0.000000D+00  E= 6.798785D-02

 Vector   15  Occ=0.000000D+00  E= 7.381437D-02

 Vector   16  Occ=0.000000D+00  E= 8.239133D-02

 Vector   17  Occ=0.000000D+00  E= 9.901854D-02

 Vector   18  Occ=0.000000D+00  E= 1.144883D-01

 Vector   19  Occ=0.000000D+00  E= 1.265376D-01

 Vector   20  Occ=0.000000D+00  E= 1.305733D-01

 Vector   21  Occ=0.000000D+00  E= 1.626887D-01

 Vector   22  Occ=0.000000D+00  E= 2.288841D-01

 Vector   23  Occ=0.000000D+00  E= 2.354573D-01

 Vector   24  Occ=0.000000D+00  E= 2.378754D-01

 Vector   25  Occ=0.000000D+00  E= 2.638918D-01

 Vector   26  Occ=0.000000D+00  E= 2.700223D-01

 Vector   27  Occ=0.000000D+00  E= 2.799097D-01

 Vector   28  Occ=0.000000D+00  E= 2.903280D-01

 Vector   29  Occ=0.000000D+00  E= 2.952912D-01

 Vector   30  Occ=0.000000D+00  E= 3.107806D-01

 Vector   31  Occ=0.000000D+00  E= 3.366199D-01

 Vector   32  Occ=0.000000D+00  E= 3.543971D-01

 Vector   33  Occ=0.000000D+00  E= 3.961800D-01

 Vector   34  Occ=0.000000D+00  E= 4.105440D-01

 Vector   35  Occ=0.000000D+00  E= 4.560245D-01

 Vector   36  Occ=0.000000D+00  E= 4.848816D-01

 Vector   37  Occ=0.000000D+00  E= 5.042662D-01

     Multipole analysis of the density
     ---------------------------------

     L   x y z        total         alpha         beta         nuclear
     -   - - -        -----         -----         ----         -------
     0   0 0 0      0.000000     -5.000000     -5.000000     10.000000

     1   1 0 0      0.563978     -0.103947     -0.103947      0.771872
     1   0 1 0      0.000000      0.000000      0.000000      0.000000
     1   0 0 1      0.461469    -28.430740    -28.430740     57.322949

     2   2 0 0     -5.080027     -3.173030     -3.173030      1.266032
     2   1 1 0      0.000000      0.000000      0.000000      0.000000
     2   1 0 1      3.740893     -0.835099     -0.835099      5.411092
     2   0 2 0     -3.298340     -3.762274     -3.762274      4.226208
     2   0 1 1      0.000000     -0.000001     -0.000001      0.000001

 Total times  cpu:       32.2s     wall:       32.3s
