 Output coordinates in a.u. (scale by  1.000000000 to convert to a.u.)

  No.       Tag          Charge          X              Y              Z
 ---- ---------------- ---------- -------------- -------------- --------------
    1 Cl                  17.0000     0.00000000     0.00000000     0.00000000
    2 F                    9.0000     0.00000000     0.00000000     3.15938392
    3 bqC                  0.0000     0.00000000     0.00000000    -5.29123277
    4 bqO                  0.0000     0.00000000     0.00000000    -7.41334014
    5 bqmb                 0.0000     0.00000000     0.00000000    -2.67619378

         Total DFT energy =     -559.754164757715

                       DFT Final Molecular Orbital Analysis
                       ------------------------------------

 Vector    3  Occ=2.000000D+00  E=-9.772944D+00

 Vector    4  Occ=2.000000D+00  E=-7.516336D+00

 Vector    5  Occ=2.000000D+00  E=-7.497395D+00

 Vector    6  Occ=2.000000D+00  E=-7.497395D+00

 Vector    7  Occ=2.000000D+00  E=-1.386606D+00

 Vector    8  Occ=2.000000D+00  E=-9.810054D-01

 Vector    9  Occ=2.000000D+00  E=-6.709496D-01

 Vector   10  Occ=2.000000D+00  E=-6.230296D-01

 Vector   11  Occ=2.000000D+00  E=-6.230296D-01

 Vector   12  Occ=2.000000D+00  E=-4.724353D-01

 Vector   13  Occ=2.000000D+00  E=-4.724352D-01

 Vector   14  Occ=0.000000D+00  E=-2.532116D-01

 Vector   15  Occ=0.000000D+00  E=-8.415738D-02

 Vector   16  Occ=0.000000D+00  E=-3.451196D-02

 Vector   17  Occ=0.000000D+00  E=-3.451196D-02

 Vector   18  Occ=0.000000D+00  E=-3.120639D-02

 Vector   19  Occ=0.000000D+00  E= 6.180017D-03

 Vector   20  Occ=0.000000D+00  E= 1.566829D-02

 Vector   21  Occ=0.000000D+00  E= 1.566829D-02

 Vector   22  Occ=0.000000D+00  E= 5.259600D-02

 Vector   23  Occ=0.000000D+00  E= 5.259788D-02

 Vector   24  Occ=0.000000D+00  E= 5.501381D-02

 Vector   25  Occ=0.000000D+00  E= 1.009352D-01

 Vector   26  Occ=0.000000D+00  E= 1.009352D-01

 Vector   27  Occ=0.000000D+00  E= 1.017192D-01

 Vector   28  Occ=0.000000D+00  E= 1.138551D-01

 Vector   29  Occ=0.000000D+00  E= 1.541087D-01

 Vector   30  Occ=0.000000D+00  E= 1.541087D-01

 Vector   31  Occ=0.000000D+00  E= 1.794647D-01

 Vector   32  Occ=0.000000D+00  E= 1.829416D-01

 Vector   33  Occ=0.000000D+00  E= 1.829416D-01

 Vector   34  Occ=0.000000D+00  E= 2.120157D-01

 Vector   35  Occ=0.000000D+00  E= 3.081012D-01

 Vector   36  Occ=0.000000D+00  E= 3.168479D-01

 Vector   37  Occ=0.000000D+00  E= 3.168479D-01

 Vector   38  Occ=0.000000D+00  E= 3.486210D-01

 Vector   39  Occ=0.000000D+00  E= 3.633042D-01

 Vector   40  Occ=0.000000D+00  E= 3.633042D-01

 Vector   41  Occ=0.000000D+00  E= 4.145240D-01

 Vector   42  Occ=0.000000D+00  E= 4.192956D-01

 Vector   43  Occ=0.000000D+00  E= 4.192960D-01

 Vector   44  Occ=0.000000D+00  E= 4.626159D-01

 Vector   45  Occ=0.000000D+00  E= 4.928607D-01

 Vector   46  Occ=0.000000D+00  E= 4.928607D-01

 Vector   47  Occ=0.000000D+00  E= 4.942718D-01

 Vector   48  Occ=0.000000D+00  E= 4.942733D-01

 Vector   49  Occ=0.000000D+00  E= 5.057033D-01

     Multipole analysis of the density
     ---------------------------------

     L   x y z        total         alpha         beta         nuclear
     -   - - -        -----         -----         ----         -------
     0   0 0 0      0.000000    -13.000000    -13.000000     26.000000

     1   1 0 0      0.000000      0.000000      0.000000      0.000000
     1   0 1 0      0.000000      0.000000      0.000000      0.000000
     1   0 0 1     -0.398957    -14.416706    -14.416706     28.434455

     2   2 0 0    -13.093267     -6.546634     -6.546634      0.000000
     2   1 1 0      0.000000      0.000000      0.000000      0.000000
     2   1 0 1      0.000000      0.000000      0.000000      0.000000
     2   0 2 0    -13.093267     -6.546634     -6.546634      0.000000
     2   0 1 1      0.000000      0.000000      0.000000      0.000000

 Total times  cpu:       41.6s     wall:       41.9s
