 Output coordinates in a.u. (scale by  1.000000000 to convert to a.u.)

  No.       Tag          Charge          X              Y              Z
 ---- ---------------- ---------- -------------- -------------- --------------
    1 C                    6.0000     0.00000000     0.00000000    -5.29123277
    2 O                    8.0000     0.00000000     0.00000000    -7.41334014
    3 bqCl                 0.0000     0.00000000     0.00000000     0.00000000
    4 bqF                  0.0000     0.00000000     0.00000000     3.15938392
    5 bqmb                 0.0000     0.00000000     0.00000000    -2.67619378

         Total DFT energy =     -113.214870696835

                       DFT Final Molecular Orbital Analysis
                       ------------------------------------

 Vector    1  Occ=2.000000D+00  E=-1.946818D+01

 Vector    2  Occ=2.000000D+00  E=-1.050676D+01

 Vector    3  Occ=2.000000D+00  E=-1.324861D+00

 Vector    4  Occ=2.000000D+00  E=-7.270610D-01

 Vector    5  Occ=2.000000D+00  E=-6.273990D-01

 Vector    6  Occ=2.000000D+00  E=-6.273990D-01

 Vector    7  Occ=2.000000D+00  E=-5.211528D-01

 Vector    8  Occ=0.000000D+00  E=-1.538131D-01

 Vector    9  Occ=0.000000D+00  E=-1.538131D-01

 Vector   10  Occ=0.000000D+00  E=-6.912626D-02

 Vector   11  Occ=0.000000D+00  E=-4.428516D-02

 Vector   12  Occ=0.000000D+00  E=-3.183838D-02

 Vector   13  Occ=0.000000D+00  E=-3.183824D-02

 Vector   14  Occ=0.000000D+00  E= 5.947491D-03

 Vector   15  Occ=0.000000D+00  E= 2.443644D-02

 Vector   16  Occ=0.000000D+00  E= 2.443650D-02

 Vector   17  Occ=0.000000D+00  E= 3.760118D-02

 Vector   18  Occ=0.000000D+00  E= 3.760129D-02

 Vector   19  Occ=0.000000D+00  E= 4.600168D-02

 Vector   20  Occ=0.000000D+00  E= 9.547478D-02

 Vector   21  Occ=0.000000D+00  E= 9.547484D-02

 Vector   22  Occ=0.000000D+00  E= 1.008222D-01

 Vector   23  Occ=0.000000D+00  E= 1.256815D-01

 Vector   24  Occ=0.000000D+00  E= 1.261858D-01

 Vector   25  Occ=0.000000D+00  E= 1.261864D-01

 Vector   26  Occ=0.000000D+00  E= 1.550044D-01

 Vector   27  Occ=0.000000D+00  E= 1.868657D-01

 Vector   28  Occ=0.000000D+00  E= 2.274378D-01

 Vector   29  Occ=0.000000D+00  E= 2.274379D-01

 Vector   30  Occ=0.000000D+00  E= 2.405859D-01

 Vector   31  Occ=0.000000D+00  E= 2.646664D-01

 Vector   32  Occ=0.000000D+00  E= 2.646665D-01

 Vector   33  Occ=0.000000D+00  E= 3.221949D-01

 Vector   34  Occ=0.000000D+00  E= 3.331119D-01

 Vector   35  Occ=0.000000D+00  E= 3.331121D-01

 Vector   36  Occ=0.000000D+00  E= 3.750764D-01

 Vector   37  Occ=0.000000D+00  E= 3.965239D-01

 Vector   38  Occ=0.000000D+00  E= 3.965240D-01

 Vector   39  Occ=0.000000D+00  E= 4.201481D-01

 Vector   40  Occ=0.000000D+00  E= 4.394626D-01

 Vector   41  Occ=0.000000D+00  E= 4.394627D-01

 Vector   42  Occ=0.000000D+00  E= 4.887596D-01

 Vector   43  Occ=0.000000D+00  E= 5.820373D-01

     Multipole analysis of the density
     ---------------------------------

     L   x y z        total         alpha         beta         nuclear
     -   - - -        -----         -----         ----         -------
     0   0 0 0      0.000000     -7.000000     -7.000000     14.000000

     1   1 0 0      0.000000      0.000000      0.000000      0.000000
     1   0 1 0      0.000000      0.000000      0.000000      0.000000
     1   0 0 1     -0.029372     45.512373     45.512373    -91.054118

     2   2 0 0     -7.628303     -3.814152     -3.814152      0.000000
     2   1 1 0      0.000000      0.000000      0.000000      0.000000
     2   1 0 1     -0.000001      0.000000      0.000000      0.000000
     2   0 2 0     -7.628303     -3.814152     -3.814152      0.000000
     2   0 1 1      0.000001      0.000000      0.000000      0.000000

 Total times  cpu:       34.8s     wall:       35.0s
