 Output coordinates in a.u. (scale by  1.000000000 to convert to a.u.)

  No.       Tag          Charge          X              Y              Z
 ---- ---------------- ---------- -------------- -------------- --------------
    1 He                   2.0000     0.00000000     0.00000000     5.60000000
    2 bqHe                 0.0000     0.00000000     0.00000000     0.00000000
    3 bqmb                 0.0000     0.00000000     0.00000000     2.80000000

         Total DFT energy =       -2.894028829390

                       DFT Final Molecular Orbital Analysis
                       ------------------------------------

 Vector    1  Occ=2.000000D+00  E=-8.818081D-01

 Vector    2  Occ=0.000000D+00  E=-5.723018D-02

 Vector    3  Occ=0.000000D+00  E=-1.566985D-02

 Vector    4  Occ=0.000000D+00  E= 7.870021D-02

 Vector    5  Occ=0.000000D+00  E= 1.029060D-01

 Vector    6  Occ=0.000000D+00  E= 1.029060D-01

 Vector    7  Occ=0.000000D+00  E= 2.560003D-01

 Vector    8  Occ=0.000000D+00  E= 2.754723D-01

 Vector    9  Occ=0.000000D+00  E= 2.754723D-01

 Vector   10  Occ=0.000000D+00  E= 3.371231D-01

 Vector   11  Occ=0.000000D+00  E= 4.429416D-01

 Vector   12  Occ=0.000000D+00  E= 4.826899D-01

 Vector   13  Occ=0.000000D+00  E= 4.826899D-01

 Vector   14  Occ=0.000000D+00  E= 5.119707D-01

     Multipole analysis of the density
     ---------------------------------

     L   x y z        total         alpha         beta         nuclear
     -   - - -        -----         -----         ----         -------
     0   0 0 0      0.000000     -1.000000     -1.000000      2.000000

     1   1 0 0      0.000000      0.000000      0.000000      0.000000
     1   0 1 0      0.000000      0.000000      0.000000      0.000000
     1   0 0 1      0.000064     -5.599968     -5.599968     11.200000

     2   2 0 0     -0.782260     -0.391130     -0.391130      0.000000
     2   1 1 0      0.000000      0.000000      0.000000      0.000000
     2   1 0 1      0.000000      0.000000      0.000000      0.000000
     2   0 2 0     -0.782260     -0.391130     -0.391130      0.000000
     2   0 1 1      0.000000      0.000000      0.000000      0.000000

 Total times  cpu:        2.9s     wall:        2.9s
